LAMMPS Atom File Created by AuToFF

  4412 atoms
  4450 bonds
  8592 angles
 11930 dihedrals
   264 impropers

     8 atom types
    17 bond types
   104 angle types
     9 dihedral types
     1 improper types

     0.00000    77.48700  xlo xhi
     0.00000    25.82900  ylo yhi
     0.00000    25.82900  zlo zhi

Masses

1      65.3778  # Zn3+2
2      15.9994  # O_3
3      12.0107  # C_2
4      12.0107  # C_1
5      12.0107  # C_R
6       1.0079  # H_
7       1.0080  # hc
8      12.0100  # c3

Atoms
#  atom  mol    type   charge         X           Y           Z
     1     1     1      1.201000     31.168000      5.339000      5.339000
     2     1     1      1.202000     33.405000      7.576000      5.339000
     3     1     1      1.202000     33.405000      5.339000      7.576000
     4     1     1      1.202000     31.168000      7.576000      7.576000
     5     1     1      1.202000     31.168000      5.339000     18.253000
     6     1     1      1.203000     33.405000      7.576000     18.253000
     7     1     1      1.202000     33.405000      5.339000     20.490000
     8     1     1      1.202000     31.168000      7.576000     20.490000
     9     1     1      1.202000     31.168000     18.253000      5.339000
    10     1     1      1.203000     33.405000     20.490000      5.339000
    11     1     1      1.202000     33.405000     18.253000      7.576000
    12     1     1      1.202000     31.168000     20.490000      7.576000
    13     1     1      1.202000     31.168000     18.253000     18.253000
    14     1     1      1.203000     33.405000     20.490000     18.253000
    15     1     1      1.202000     33.405000     18.253000     20.490000
    16     1     1      1.203000     31.168000     20.490000     20.490000
    17     1     1      1.202000     44.082000      5.339000      5.339000
    18     1     1      1.203000     46.319000      7.576000      5.339000
    19     1     1      1.202000     46.319000      5.339000      7.576000
    20     1     1      1.202000     44.082000      7.576000      7.576000
    21     1     1      1.202000     44.082000      5.339000     18.253000
    22     1     1      1.203000     46.319000      7.576000     18.253000
    23     1     1      1.203000     46.319000      5.339000     20.490000
    24     1     1      1.202000     44.082000      7.576000     20.490000
    25     1     1      1.202000     44.082000     18.253000      5.339000
    26     1     1      1.203000     46.319000     20.490000      5.339000
    27     1     1      1.202000     46.319000     18.253000      7.576000
    28     1     1      1.202000     44.082000     20.490000      7.576000
    29     1     1      1.202000     44.082000     18.253000     18.253000
    30     1     1      1.203000     46.319000     20.490000     18.253000
    31     1     1      1.203000     46.319000     18.253000     20.490000
    32     1     1      1.202000     44.082000     20.490000     20.490000
    33     1     2     -0.975000     32.286000      6.457000      6.457000
    34     1     2     -0.513000     29.228000      5.695000      5.695000
    35     1     2     -0.507000     35.344000      7.220000      5.695000
    36     1     2     -0.511000     35.344000      5.695000      7.220000
    37     1     2     -0.509000     29.228000      7.220000      7.220000
    38     1     2     -0.509000     31.524000      3.399000      5.695000
    39     1     2     -0.510000     31.524000      9.515000      7.220000
    40     1     2     -0.507000     33.049000      9.515000      5.695000
    41     1     2     -0.512000     33.049000      3.399000      7.220000
    42     1     2     -0.511000     31.524000      5.695000      3.399000
    43     1     2     -0.509000     33.049000      5.695000      9.515000
    44     1     2     -0.512000     31.524000      7.220000      9.515000
    45     1     2     -0.507000     33.049000      7.220000      3.399000
    46     1     2     -0.974000     32.286000      6.457000     19.372000
    47     1     2     -0.513000     29.228000      5.695000     18.609000
    48     1     2     -0.507000     35.344000      7.220000     18.609000
    49     1     2     -0.511000     35.344000      5.695000     20.134000
    50     1     2     -0.509000     29.228000      7.220000     20.134000
    51     1     2     -0.509000     31.524000      3.399000     18.609000
    52     1     2     -0.510000     31.524000      9.515000     20.134000
    53     1     2     -0.507000     33.049000      9.515000     18.609000
    54     1     2     -0.512000     33.049000      3.399000     20.134000
    55     1     2     -0.511000     31.524000      5.695000     16.314000
    56     1     2     -0.508000     33.049000      5.695000     22.429000
    57     1     2     -0.512000     31.524000      7.220000     22.429000
    58     1     2     -0.507000     33.049000      7.220000     16.314000
    59     1     2     -0.974000     32.286000     19.372000      6.457000
    60     1     2     -0.513000     29.228000     18.609000      5.695000
    61     1     2     -0.507000     35.344000     20.134000      5.695000
    62     1     2     -0.510000     35.344000     18.609000      7.220000
    63     1     2     -0.509000     29.228000     20.134000      7.220000
    64     1     2     -0.509000     31.524000     16.314000      5.695000
    65     1     2     -0.510000     31.524000     22.429000      7.220000
    66     1     2     -0.507000     33.049000     22.429000      5.695000
    67     1     2     -0.512000     33.049000     16.314000      7.220000
    68     1     2     -0.510100     31.524000     18.609000      3.399000
    69     1     2     -0.509000     33.049000     18.609000      9.515000
    70     1     2     -0.512000     31.524000     20.134000      9.515000
    71     1     2     -0.507000     33.049000     20.134000      3.399000
    72     1     2     -0.974100     32.286000     19.372000     19.372000
    73     1     2     -0.512000     29.228000     18.609000     18.609000
    74     1     2     -0.507000     35.344000     20.134000     18.609000
    75     1     2     -0.511000     35.344000     18.609000     20.134000
    76     1     2     -0.509000     29.228000     20.134000     20.134000
    77     1     2     -0.509000     31.524000     16.314000     18.609000
    78     1     2     -0.510000     31.524000     22.429000     20.134000
    79     1     2     -0.507000     33.049000     22.429000     18.609000
    80     1     2     -0.512000     33.049000     16.314000     20.134000
    81     1     2     -0.510000     31.524000     18.609000     16.314000
    82     1     2     -0.508000     33.049000     18.609000     22.429000
    83     1     2     -0.512000     31.524000     20.134000     22.429000
    84     1     2     -0.507000     33.049000     20.134000     16.314000
    85     1     2     -0.974000     45.201000      6.457000      6.457000
    86     1     2     -0.512000     42.143000      5.695000      5.695000
    87     1     2     -0.507000     48.258000      7.220000      5.695000
    88     1     2     -0.511000     48.258000      5.695000      7.220000
    89     1     2     -0.509000     42.143000      7.220000      7.220000
    90     1     2     -0.509000     44.438000      3.399000      5.695000
    91     1     2     -0.510000     44.438000      9.515000      7.220000
    92     1     2     -0.507000     45.963000      9.515000      5.695000
    93     1     2     -0.512000     45.963000      3.399000      7.220000
    94     1     2     -0.510000     44.438000      5.695000      3.399000
    95     1     2     -0.509000     45.963000      5.695000      9.515000
    96     1     2     -0.512000     44.438000      7.220000      9.515000
    97     1     2     -0.507000     45.963000      7.220000      3.399000
    98     1     2     -0.974100     45.201000      6.457000     19.372000
    99     1     2     -0.512100     42.143000      5.695000     18.609000
   100     1     2     -0.507000     48.258000      7.220000     18.609000
   101     1     2     -0.511000     48.258000      5.695000     20.134000
   102     1     2     -0.509000     42.143000      7.220000     20.134000
   103     1     2     -0.508000     44.438000      3.399000     18.609000
   104     1     2     -0.510000     44.438000      9.515000     20.134000
   105     1     2     -0.507000     45.963000      9.515000     18.609000
   106     1     2     -0.512000     45.963000      3.399000     20.134000
   107     1     2     -0.510000     44.438000      5.695000     16.314000
   108     1     2     -0.508000     45.963000      5.695000     22.429000
   109     1     2     -0.511000     44.438000      7.220000     22.429000
   110     1     2     -0.507000     45.963000      7.220000     16.314000
   111     1     2     -0.974000     45.201000     19.372000      6.457000
   112     1     2     -0.512000     42.143000     18.609000      5.695000
   113     1     2     -0.507100     48.258000     20.134000      5.695000
   114     1     2     -0.511000     48.258000     18.609000      7.220000
   115     1     2     -0.509000     42.143000     20.134000      7.220000
   116     1     2     -0.509000     44.438000     16.314000      5.695000
   117     1     2     -0.510000     44.438000     22.429000      7.220000
   118     1     2     -0.507000     45.963000     22.429000      5.695000
   119     1     2     -0.512000     45.963000     16.314000      7.220000
   120     1     2     -0.510000     44.438000     18.609000      3.399000
   121     1     2     -0.509000     45.963000     18.609000      9.515000
   122     1     2     -0.512000     44.438000     20.134000      9.515000
   123     1     2     -0.507000     45.963000     20.134000      3.399000
   124     1     2     -0.974100     45.201000     19.372000     19.372000
   125     1     2     -0.512000     42.143000     18.609000     18.609000
   126     1     2     -0.507000     48.258000     20.134000     18.609000
   127     1     2     -0.511000     48.258000     18.609000     20.134000
   128     1     2     -0.509000     42.143000     20.134000     20.134000
   129     1     2     -0.509000     44.438000     16.314000     18.609000
   130     1     2     -0.510000     44.438000     22.429000     20.134000
   131     1     2     -0.507000     45.963000     22.429000     18.609000
   132     1     2     -0.512000     45.963000     16.314000     20.134000
   133     1     2     -0.510000     44.438000     18.609000     16.314000
   134     1     2     -0.508000     45.963000     18.609000     22.429000
   135     1     2     -0.512000     44.438000     20.134000     22.429000
   136     1     2     -0.507000     45.963000     20.134000     16.314000
   137     1     3      0.428000     28.594000      6.457000      6.457000
   138     1     3     -0.142900     27.133000      6.457000      6.457000
   139     1     4      0.065000     26.443000      5.233000      6.457000
   140     1     3     -0.088000     27.171000      4.038000      6.457000
   141     1     4     -0.040000     26.528000      2.799000      6.457000
   142     1     3      0.426000     35.978000      6.457000      6.457000
   143     1     5     -0.134000     37.440000      6.457000      6.457000
   144     1     5      0.001000     38.129000      7.681000      6.457000
   145     1     5      0.054000     38.129000      5.233000      6.457000
   146     1     5     -0.084000     37.402000      4.038000      6.457000
   147     1     5     -0.026000     38.044000      2.799000      6.457000
   148     1     4     -0.005000     26.443000      7.681000      6.457000
   149     1     3      0.426000     32.286000      2.765000      6.457000
   150     1     5     -0.135000     32.286000      1.304000      6.457000
   151     1     5      0.000000     32.286000      0.614000      5.233000
   152     1     3      0.426000     32.286000     10.149000      6.457000
   153     1     5     -0.134000     32.286000     11.611000      6.457000
   154     1     5      0.054000     32.286000     12.300000      7.681000
   155     1     5     -0.084000     32.286000     11.573000      8.877000
   156     1     5     -0.025000     32.286000     12.215000     10.116000
   157     1     5      0.001000     32.286000     12.300000      5.233000
   158     1     5      0.053000     32.286000      0.614000      7.681000
   159     1     5     -0.084000     32.286000      1.342000      8.877000
   160     1     5     -0.026000     32.286000      0.699000     10.116000
   161     1     3      0.425900     32.286000      6.457000      2.765000
   162     1     5     -0.135000     32.286000      6.457000      1.304000
   163     1     5      0.056000     31.062000      6.457000      0.614000
   164     1     5     -0.085900     29.867000      6.457000      1.342000
   165     1     5     -0.024000     28.628000      6.457000      0.699000
   166     1     3      0.426000     32.286000      6.457000     10.149000
   167     1     5     -0.135000     32.286000      6.457000     11.611000
   168     1     5      0.001000     33.510000      6.457000     12.300000
   169     1     5      0.054000     31.062000      6.457000     12.300000
   170     1     5     -0.085000     29.867000      6.457000     11.573000
   171     1     5     -0.025000     28.628000      6.457000     12.215000
   172     1     5      0.002000     33.510000      6.457000      0.614000
   173     1     3      0.428000     28.594000      6.457000     19.372000
   174     1     3     -0.142900     27.133000      6.457000     19.372000
   175     1     4      0.065000     26.443000      5.233000     19.372000
   176     1     3     -0.088000     27.171000      4.038000     19.372000
   177     1     4     -0.040000     26.528000      2.799000     19.372000
   178     1     3      0.426000     35.978000      6.457000     19.372000
   179     1     5     -0.134000     37.440000      6.457000     19.372000
   180     1     5      0.001000     38.129000      7.681000     19.372000
   181     1     5      0.054000     38.129000      5.233000     19.372000
   182     1     5     -0.085000     37.402000      4.038000     19.372000
   183     1     5     -0.025000     38.044000      2.799000     19.372000
   184     1     4     -0.006000     26.443000      7.681000     19.372000
   185     1     3      0.426000     32.286000      2.765000     19.372000
   186     1     5     -0.135000     32.286000      1.304000     19.372000
   187     1     5      0.000000     32.286000      0.614000     18.148000
   188     1     3      0.426000     32.286000     10.149000     19.372000
   189     1     5     -0.134000     32.286000     11.611000     19.372000
   190     1     5      0.054000     32.286000     12.300000     20.596000
   191     1     5     -0.084000     32.286000     11.573000     21.791000
   192     1     5     -0.025000     32.286000     12.215000     23.030000
   193     1     5      0.001000     32.286000     12.300000     18.148000
   194     1     5      0.053000     32.286000      0.614000     20.596000
   195     1     5     -0.084000     32.286000      1.342000     21.791000
   196     1     5     -0.026000     32.286000      0.699000     23.030000
   197     1     3      0.426000     32.286000      6.457000     15.680000
   198     1     5     -0.134000     32.286000      6.457000     14.218000
   199     1     5      0.054000     31.062000      6.457000     13.529000
   200     1     5     -0.085000     29.867000      6.457000     14.256000
   201     1     5     -0.025000     28.628000      6.457000     13.614000
   202     1     3      0.425000     32.286000      6.457000     23.064000
   203     1     5     -0.134000     32.286000      6.457000     24.525000
   204     1     5      0.000000     33.510000      6.457000     25.214000
   205     1     5      0.053000     31.062000      6.457000     25.214000
   206     1     5     -0.084000     29.867000      6.457000     24.487000
   207     1     5     -0.026000     28.628000      6.457000     25.129000
   208     1     5      0.001000     33.510000      6.457000     13.529000
   209     1     3      0.428000     28.594000     19.372000      6.457000
   210     1     3     -0.142900     27.133000     19.372000      6.457000
   211     1     4      0.065000     26.443000     18.148000      6.457000
   212     1     3     -0.088000     27.171000     16.952000      6.457000
   213     1     4     -0.040000     26.528000     15.713000      6.457000
   214     1     3      0.426000     35.978000     19.372000      6.457000
   215     1     5     -0.134000     37.440000     19.372000      6.457000
   216     1     5      0.001000     38.129000     20.596000      6.457000
   217     1     5      0.054000     38.129000     18.148000      6.457000
   218     1     5     -0.084000     37.402000     16.952000      6.457000
   219     1     5     -0.026000     38.044000     15.713000      6.457000
   220     1     4     -0.006000     26.443000     20.596000      6.457000
   221     1     3      0.426000     32.286000     15.680000      6.457000
   222     1     5     -0.135000     32.286000     14.218000      6.457000
   223     1     5      0.001000     32.286000     13.529000      5.233000
   224     1     3      0.426000     32.286000     23.064000      6.457000
   225     1     5     -0.135000     32.286000     24.525000      6.457000
   226     1     5      0.055000     32.286000     25.214000      7.681000
   227     1     5     -0.085000     32.286000     24.487000      8.877000
   228     1     5     -0.025000     32.286000     25.129000     10.116000
   229     1     5      0.002000     32.286000     25.214000      5.233000
   230     1     5      0.054000     32.286000     13.529000      7.681000
   231     1     5     -0.085000     32.286000     14.256000      8.877000
   232     1     5     -0.025000     32.286000     13.614000     10.116000
   233     1     3      0.426000     32.286000     19.372000      2.765000
   234     1     5     -0.135000     32.286000     19.372000      1.304000
   235     1     5      0.056000     31.062000     19.372000      0.614000
   236     1     5     -0.085900     29.867000     19.372000      1.342000
   237     1     5     -0.024000     28.628000     19.372000      0.699000
   238     1     3      0.426000     32.286000     19.372000     10.149000
   239     1     5     -0.135000     32.286000     19.372000     11.611000
   240     1     5      0.001000     33.510000     19.372000     12.300000
   241     1     5      0.054000     31.062000     19.372000     12.300000
   242     1     5     -0.085000     29.867000     19.372000     11.573000
   243     1     5     -0.025000     28.628000     19.372000     12.215000
   244     1     5      0.002000     33.510000     19.372000      0.614000
   245     1     3      0.428000     28.594000     19.372000     19.372000
   246     1     3     -0.142900     27.133000     19.372000     19.372000
   247     1     4      0.065000     26.443000     18.148000     19.372000
   248     1     3     -0.088000     27.171000     16.952000     19.372000
   249     1     4     -0.040000     26.528000     15.713000     19.372000
   250     1     3      0.426000     35.978000     19.372000     19.372000
   251     1     5     -0.134000     37.440000     19.372000     19.372000
   252     1     5      0.001000     38.129000     20.596000     19.372000
   253     1     5      0.054000     38.129000     18.148000     19.372000
   254     1     5     -0.084000     37.402000     16.952000     19.372000
   255     1     5     -0.026000     38.044000     15.713000     19.372000
   256     1     4     -0.006000     26.443000     20.596000     19.372000
   257     1     3      0.426000     32.286000     15.680000     19.372000
   258     1     5     -0.135000     32.286000     14.218000     19.372000
   259     1     5      0.001000     32.286000     13.529000     18.148000
   260     1     3      0.426000     32.286000     23.064000     19.372000
   261     1     5     -0.135000     32.286000     24.525000     19.372000
   262     1     5      0.055000     32.286000     25.214000     20.596000
   263     1     5     -0.085900     32.286000     24.487000     21.791000
   264     1     5     -0.025000     32.286000     25.129000     23.030000
   265     1     5      0.002000     32.286000     25.214000     18.148000
   266     1     5      0.054000     32.286000     13.529000     20.596000
   267     1     5     -0.085000     32.286000     14.256000     21.791000
   268     1     5     -0.025000     32.286000     13.614000     23.030000
   269     1     3      0.426000     32.286000     19.372000     15.680000
   270     1     5     -0.134000     32.286000     19.372000     14.218000
   271     1     5      0.054000     31.062000     19.372000     13.529000
   272     1     5     -0.084000     29.867000     19.372000     14.256000
   273     1     5     -0.025000     28.628000     19.372000     13.614000
   274     1     3      0.425000     32.286000     19.372000     23.064000
   275     1     5     -0.134000     32.286000     19.372000     24.525000
   276     1     5      0.000000     33.510000     19.372000     25.214000
   277     1     5      0.053000     31.062000     19.372000     25.214000
   278     1     5     -0.084000     29.867000     19.372000     24.487000
   279     1     5     -0.026000     28.628000     19.372000     25.129000
   280     1     5      0.001000     33.510000     19.372000     13.529000
   281     1     3      0.426000     41.509000      6.457000      6.457000
   282     1     5     -0.135000     40.047000      6.457000      6.457000
   283     1     5      0.054000     39.358000      5.233000      6.457000
   284     1     5     -0.085000     40.085000      4.038000      6.457000
   285     1     5     -0.025000     39.443000      2.799000      6.457000
   286     1     3      0.428000     48.893000      6.457000      6.457000
   287     1     3     -0.142900     50.354000      6.457000      6.457000
   288     1     4     -0.004000     51.043000      7.681000      6.457000
   289     1     4      0.067000     51.043000      5.233000      6.457000
   290     1     3     -0.089000     50.316000      4.038000      6.457000
   291     1     4     -0.038000     50.958000      2.799000      6.457000
   292     1     5      0.001000     39.358000      7.681000      6.457000
   293     1     3      0.426000     45.201000      2.765000      6.457000
   294     1     5     -0.135000     45.201000      1.304000      6.457000
   295     1     5      0.000000     45.201000      0.614000      5.233000
   296     1     3      0.426000     45.201000     10.149000      6.457000
   297     1     5     -0.134000     45.201000     11.611000      6.457000
   298     1     5      0.054000     45.201000     12.300000      7.681000
   299     1     5     -0.084000     45.201000     11.573000      8.877000
   300     1     5     -0.025000     45.201000     12.215000     10.116000
   301     1     5      0.001000     45.201000     12.300000      5.233000
   302     1     5      0.054000     45.201000      0.614000      7.681000
   303     1     5     -0.084000     45.201000      1.342000      8.877000
   304     1     5     -0.026000     45.201000      0.699000     10.116000
   305     1     3      0.426000     45.201000      6.457000      2.765000
   306     1     5     -0.135000     45.201000      6.457000      1.304000
   307     1     5      0.056000     43.977000      6.457000      0.614000
   308     1     5     -0.085900     42.781000      6.457000      1.342000
   309     1     5     -0.024000     41.542000      6.457000      0.699000
   310     1     3      0.426000     45.201000      6.457000     10.149000
   311     1     5     -0.135000     45.201000      6.457000     11.611000
   312     1     5      0.001000     46.425000      6.457000     12.300000
   313     1     5      0.054000     43.977000      6.457000     12.300000
   314     1     5     -0.085000     42.781000      6.457000     11.573000
   315     1     5     -0.025000     41.542000      6.457000     12.215000
   316     1     5      0.002000     46.425000      6.457000      0.614000
   317     1     3      0.426000     41.509000      6.457000     19.372000
   318     1     5     -0.135000     40.047000      6.457000     19.372000
   319     1     5      0.054000     39.358000      5.233000     19.372000
   320     1     5     -0.085000     40.085000      4.038000     19.372000
   321     1     5     -0.025000     39.443000      2.799000     19.372000
   322     1     3      0.428000     48.893000      6.457000     19.372000
   323     1     3     -0.142900     50.354000      6.457000     19.372000
   324     1     4     -0.004000     51.043000      7.681000     19.372000
   325     1     4      0.067000     51.043000      5.233000     19.372000
   326     1     3     -0.089000     50.316000      4.038000     19.372000
   327     1     4     -0.038000     50.958000      2.799000     19.372000
   328     1     5      0.001000     39.358000      7.681000     19.372000
   329     1     3      0.426000     45.201000      2.765000     19.372000
   330     1     5     -0.135000     45.201000      1.304000     19.372000
   331     1     5      0.001000     45.201000      0.614000     18.148000
   332     1     3      0.426000     45.201000     10.149000     19.372000
   333     1     5     -0.134000     45.201000     11.611000     19.372000
   334     1     5      0.054000     45.201000     12.300000     20.596000
   335     1     5     -0.084000     45.201000     11.573000     21.791000
   336     1     5     -0.025000     45.201000     12.215000     23.030000
   337     1     5      0.001000     45.201000     12.300000     18.148000
   338     1     5      0.054000     45.201000      0.614000     20.596000
   339     1     5     -0.084000     45.201000      1.342000     21.791000
   340     1     5     -0.026000     45.201000      0.699000     23.030000
   341     1     3      0.426000     45.201000      6.457000     15.680000
   342     1     5     -0.134000     45.201000      6.457000     14.218000
   343     1     5      0.054000     43.977000      6.457000     13.529000
   344     1     5     -0.084000     42.781000      6.457000     14.256000
   345     1     5     -0.026000     41.542000      6.457000     13.614000
   346     1     3      0.425000     45.201000      6.457000     23.064000
   347     1     5     -0.134000     45.201000      6.457000     24.525000
   348     1     5      0.000000     46.425000      6.457000     25.214000
   349     1     5      0.053000     43.977000      6.457000     25.214000
   350     1     5     -0.084000     42.781000      6.457000     24.487000
   351     1     5     -0.027000     41.542000      6.457000     25.129000
   352     1     5      0.001000     46.425000      6.457000     13.529000
   353     1     3      0.426000     41.509000     19.372000      6.457000
   354     1     5     -0.135000     40.047000     19.372000      6.457000
   355     1     5      0.054000     39.358000     18.148000      6.457000
   356     1     5     -0.085000     40.085000     16.952000      6.457000
   357     1     5     -0.025000     39.443000     15.713000      6.457000
   358     1     3      0.427900     48.893000     19.372000      6.457000
   359     1     3     -0.141900     50.354000     19.372000      6.457000
   360     1     4     -0.004000     51.043000     20.596000      6.457000
   361     1     4      0.067000     51.043000     18.148000      6.457000
   362     1     3     -0.088000     50.316000     16.952000      6.457000
   363     1     4     -0.038000     50.958000     15.713000      6.457000
   364     1     5      0.001000     39.358000     20.596000      6.457000
   365     1     3      0.426000     45.201000     15.680000      6.457000
   366     1     5     -0.135000     45.201000     14.218000      6.457000
   367     1     5      0.001000     45.201000     13.529000      5.233000
   368     1     3      0.425000     45.201000     23.064000      6.457000
   369     1     5     -0.135000     45.201000     24.525000      6.457000
   370     1     5      0.055000     45.201000     25.214000      7.681000
   371     1     5     -0.085000     45.201000     24.487000      8.877000
   372     1     5     -0.025000     45.201000     25.129000     10.116000
   373     1     5      0.002000     45.201000     25.214000      5.233000
   374     1     5      0.054000     45.201000     13.529000      7.681000
   375     1     5     -0.085000     45.201000     14.256000      8.877000
   376     1     5     -0.025000     45.201000     13.614000     10.116000
   377     1     3      0.426000     45.201000     19.372000      2.765000
   378     1     5     -0.135000     45.201000     19.372000      1.304000
   379     1     5      0.055000     43.977000     19.372000      0.614000
   380     1     5     -0.085900     42.781000     19.372000      1.342000
   381     1     5     -0.024000     41.542000     19.372000      0.699000
   382     1     3      0.426000     45.201000     19.372000     10.149000
   383     1     5     -0.135000     45.201000     19.372000     11.611000
   384     1     5      0.001000     46.425000     19.372000     12.300000
   385     1     5      0.054000     43.977000     19.372000     12.300000
   386     1     5     -0.085000     42.781000     19.372000     11.573000
   387     1     5     -0.025000     41.542000     19.372000     12.215000
   388     1     5      0.002000     46.425000     19.372000      0.614000
   389     1     3      0.426000     41.509000     19.372000     19.372000
   390     1     5     -0.135000     40.047000     19.372000     19.372000
   391     1     5      0.054000     39.358000     18.148000     19.372000
   392     1     5     -0.085000     40.085000     16.952000     19.372000