LAMMPS Atom File Created by AuToFF

  4245 atoms
  4272 bonds
  8244 angles
 11222 dihedrals
   177 impropers

     9 atom types
    36 bond types
  1041 angle types
    16 dihedral types
     1 improper types

     0.00000    77.29200  xlo xhi
     0.00000    25.76400  ylo yhi
     0.00000    25.76400  zlo zhi

Masses

1      15.9994  # O_3
2      12.0107  # C_2
3      12.0107  # C_R
4      12.0107  # C_3
5      12.0107  # C_1
6      65.3778  # Zn3+2
7       1.0079  # H_
8       1.0080  # hc
9      12.0100  # c3

Atoms
#  atom  mol    type   charge         X           Y           Z
     1     1     1     -0.952000     32.205000      6.441000      6.441000
     2     1     1     -0.251000     29.991000      1.319000      6.441000
     3     1     1     -0.253000     34.419000     11.562000      6.441000
     4     1     1     -0.244000     32.205000      4.227000      1.319000
     5     1     1     -0.253000     32.205000      8.655000     11.562000
     6     1     1     -0.226000     27.083000      6.441000      4.227000
     7     1     1     -0.252000     37.326000      6.441000      8.655000
     8     1     1     -0.516000     29.259000      5.637000      7.245000
     9     1     1     -0.496000     35.151000      7.245000      7.245000
    10     1     1     -0.498900     29.259000      7.245000      5.637000
    11     1     1     -0.509000     35.151000      5.637000      5.637000
    12     1     1     -0.513000     31.401000      5.637000      9.387000
    13     1     1     -0.496000     33.009000      5.637000      3.495000
    14     1     1     -0.497000     33.009000      7.245000      9.387000
    15     1     1     -0.509000     31.401000      7.245000      3.495000
    16     1     1     -0.505000     31.401000      3.495000      7.245000
    17     1     1     -0.509000     31.401000      9.387000      5.637000
    18     1     1     -0.509000     33.009000      3.495000      5.637000
    19     1     1     -0.497000     33.009000      9.387000      7.245000
    20     1     1     -0.953000     32.205000      6.441000     19.323000
    21     1     1     -0.506000     31.401000      3.495000     18.519000
    22     1     1     -0.512000     33.009000      9.387000     18.519000
    23     1     1     -0.495000     33.009000      3.495000     20.127000
    24     1     1     -0.245000     34.419000      1.319000     19.323000
    25     1     1     -0.502000     31.401000      9.387000     20.127000
    26     1     1     -0.259000     29.991000     11.562000     19.323000
    27     1     1     -0.501000     31.401000      5.637000     16.377000
    28     1     1     -0.252900     32.205000      4.227000     14.201000
    29     1     1     -0.504000     31.401000      7.245000     22.269000
    30     1     1     -0.253000     32.205000      8.655000     24.444000
    31     1     1     -0.512000     33.009000      7.245000     16.377000
    32     1     1     -0.505000     33.009000      5.637000     22.269000
    33     1     1     -0.506000     29.259000      5.637000     18.519000
    34     1     1     -0.234000     27.083000      6.441000     17.109000
    35     1     1     -0.495900     35.151000      5.637000     20.127000
    36     1     1     -0.255000     37.326000      6.441000     21.537000
    37     1     1     -0.512000     29.259000      7.245000     20.127000
    38     1     1     -0.512000     35.151000      7.245000     18.519000
    39     1     1     -0.953000     32.205000     19.323000      6.441000
    40     1     1     -0.497000     31.401000     16.377000      5.637000
    41     1     1     -0.255000     29.991000     14.201000      6.441000
    42     1     1     -0.504000     33.009000     22.269000      5.637000
    43     1     1     -0.253000     34.419000     24.444000      6.441000
    44     1     1     -0.513000     33.009000     16.377000      7.245000
    45     1     1     -0.509000     31.401000     22.269000      7.245000
    46     1     1     -0.496000     31.401000     18.519000      3.495000
    47     1     1     -0.246000     32.205000     17.109000      1.319000
    48     1     1     -0.502000     31.401000     20.127000      9.387000
    49     1     1     -0.258000     32.205000     21.537000     11.562000
    50     1     1     -0.509000     33.009000     20.127000      3.495000
    51     1     1     -0.513000     33.009000     18.519000      9.387000
    52     1     1     -0.509000     29.259000     18.519000      5.637000
    53     1     1     -0.513000     35.151000     18.519000      7.245000
    54     1     1     -0.506000     29.259000     20.127000      7.245000
    55     1     1     -0.234000     27.083000     19.323000      8.655000
    56     1     1     -0.504000     35.151000     20.127000      5.637000
    57     1     1     -0.260000     37.326000     19.323000      4.227000
    58     1     1     -0.953000     32.205000     19.323000     19.323000
    59     1     1     -0.252000     34.419000     14.201000     19.323000
    60     1     1     -0.250000     29.991000     24.444000     19.323000
    61     1     1     -0.252000     32.205000     17.109000     14.201000
    62     1     1     -0.244000     32.205000     21.537000     24.444000
    63     1     1     -0.231000     27.083000     19.323000     21.537000
    64     1     1     -0.253000     37.326000     19.323000     17.109000
    65     1     1     -0.507000     29.259000     18.519000     20.127000
    66     1     1     -0.509000     35.151000     20.127000     20.127000
    67     1     1     -0.511000     29.259000     20.127000     18.519000
    68     1     1     -0.497000     35.151000     18.519000     18.519000
    69     1     1     -0.514000     31.401000     18.519000     22.269000
    70     1     1     -0.497000     33.009000     18.519000     16.377000
    71     1     1     -0.496000     33.009000     20.127000     22.269000
    72     1     1     -0.510000     31.401000     20.127000     16.377000
    73     1     1     -0.513000     31.401000     16.377000     20.127000
    74     1     1     -0.496000     31.401000     22.269000     18.519000
    75     1     1     -0.497000     33.009000     16.377000     18.519000
    76     1     1     -0.506000     33.009000     22.269000     20.127000
    77     1     1     -0.953000     45.087000      6.441000      6.441000
    78     1     1     -0.496000     44.283000      3.495000      5.637000
    79     1     1     -0.246000     42.873000      1.319000      6.441000
    80     1     1     -0.496000     45.891000      9.387000      5.637000
    81     1     1     -0.246000     47.301000     11.562000      6.441000
    82     1     1     -0.505000     45.891000      3.495000      7.245000
    83     1     1     -0.511000     44.283000      9.387000      7.245000
    84     1     1     -0.507000     44.283000      5.637000      3.495000
    85     1     1     -0.512000     44.283000      7.245000      9.387000
    86     1     1     -0.495000     45.891000      7.245000      3.495000
    87     1     1     -0.244000     45.087000      8.655000      1.319000
    88     1     1     -0.501000     45.891000      5.637000      9.387000
    89     1     1     -0.254000     45.087000      4.227000     11.562000
    90     1     1     -0.498000     42.141000      5.637000      5.637000
    91     1     1     -0.258000     39.965000      6.441000      4.227000
    92     1     1     -0.506000     48.033000      5.637000      7.245000
    93     1     1     -0.234000     50.208000      6.441000      8.655000
    94     1     1     -0.512000     42.141000      7.245000      7.245000
    95     1     1     -0.508000     48.033000      7.245000      5.637000
    96     1     1     -0.952000     45.087000      6.441000     19.323000
    97     1     1     -0.250000     47.301000      1.319000     19.323000
    98     1     1     -0.251000     42.873000     11.562000     19.323000
    99     1     1     -0.251000     45.087000      8.655000     14.201000
   100     1     1     -0.244000     45.087000      4.227000     24.444000
   101     1     1     -0.252000     39.965000      6.441000     17.109000
   102     1     1     -0.230000     50.208000      6.441000     21.537000
   103     1     1     -0.509000     42.141000      5.637000     20.127000
   104     1     1     -0.507000     48.033000      7.245000     20.127000
   105     1     1     -0.496000     42.141000      7.245000     18.519000
   106     1     1     -0.510000     48.033000      5.637000     18.519000
   107     1     1     -0.494000     44.283000      5.637000     22.269000
   108     1     1     -0.510000     45.891000      5.637000     16.377000
   109     1     1     -0.510000     45.891000      7.245000     22.269000
   110     1     1     -0.496000     44.283000      7.245000     16.377000
   111     1     1     -0.504000     44.283000      3.495000     20.127000
   112     1     1     -0.497000     44.283000      9.387000     18.519000
   113     1     1     -0.495000     45.891000      3.495000     18.519000
   114     1     1     -0.508000     45.891000      9.387000     20.127000
   115     1     1     -0.953000     45.087000     19.323000      6.441000
   116     1     1     -0.258000     42.873000     14.201000      6.441000
   117     1     1     -0.245000     47.301000     24.444000      6.441000
   118     1     1     -0.249000     45.087000     21.537000      1.319000
   119     1     1     -0.252000     45.087000     17.109000     11.562000
   120     1     1     -0.252000     39.965000     19.323000      8.655000
   121     1     1     -0.226000     50.208000     19.323000      4.227000
   122     1     1     -0.496000     42.141000     18.519000      7.245000
   123     1     1     -0.507000     48.033000     20.127000      7.245000
   124     1     1     -0.510000     42.141000     20.127000      5.637000
   125     1     1     -0.497000     48.033000     18.519000      5.637000
   126     1     1     -0.496000     44.283000     18.519000      9.387000
   127     1     1     -0.507000     45.891000     18.519000      3.495000
   128     1     1     -0.506000     45.891000     20.127000      9.387000
   129     1     1     -0.496000     44.283000     20.127000      3.495000
   130     1     1     -0.499000     44.283000     16.377000      7.245000
   131     1     1     -0.507000     44.283000     22.269000      5.637000
   132     1     1     -0.511000     45.891000     16.377000      5.637000
   133     1     1     -0.495000     45.891000     22.269000      7.245000
   134     1     1     -0.953000     45.087000     19.323000     19.323000
   135     1     1     -0.511000     44.283000     16.377000     18.519000
   136     1     1     -0.505000     45.891000     22.269000     18.519000
   137     1     1     -0.492000     45.891000     16.377000     20.127000
   138     1     1     -0.255000     47.301000     14.201000     19.323000
   139     1     1     -0.504000     44.283000     22.269000     20.127000
   140     1     1     -0.253000     42.873000     24.444000     19.323000
   141     1     1     -0.512000     44.283000     18.519000     16.377000
   142     1     1     -0.508000     44.283000     20.127000     22.269000
   143     1     1     -0.497000     45.891000     20.127000     16.377000
   144     1     1     -0.255000     45.087000     21.537000     14.201000
   145     1     1     -0.493000     45.891000     18.519000     22.269000
   146     1     1     -0.245000     45.087000     17.109000     24.444000
   147     1     1     -0.512000     42.141000     18.519000     18.519000
   148     1     1     -0.509000     48.033000     18.519000     20.127000
   149     1     1     -0.502000     42.141000     20.127000     20.127000
   150     1     1     -0.258000     39.965000     19.323000     21.537000
   151     1     1     -0.497000     48.033000     20.127000     18.519000
   152     1     1     -0.227000     50.208000     19.323000     17.109000
   153     1     2      0.387000     32.205000      2.917000      6.441000
   154     1     3     -0.117900     32.205000      1.388000      6.441000
   155     1     3      0.222000     31.064000      0.658000      6.441000
   156     1     4      0.075000     29.390000      1.315000      7.731000
   157     1     4     -0.117000     28.206000      2.282000      7.735000
   158     1     5      0.019000     27.010000      1.750000      6.937000
   159     1     4     -0.040000     38.750000      2.757000      7.152000
   160     1     2      0.384000     32.205000      9.965000      6.441000
   161     1     3     -0.116000     32.205000     11.494000      6.441000
   162     1     3      0.221000     33.346000     12.224000      6.441000
   163     1     4      0.067000     35.708000     12.043000      6.045000
   164     1     4     -0.101000     36.615000     10.814000      5.917000
   165     1     4     -0.060000     38.078000     11.177000      5.652000
   166     1     3     -0.113000     33.346000      0.658000      6.441000
   167     1     4     -0.152000     37.486000      2.115000      6.588000
   168     1     3     -0.123000     31.064000     12.224000      6.441000
   169     1     2      0.383000     32.205000      6.441000      2.917000
   170     1     3     -0.115000     32.205000      6.441000      1.388000
   171     1     3      0.220000     32.205000      5.300000      0.658000
   172     1     4      0.070900     30.896000      3.756000      1.552000
   173     1     4     -0.109000     30.924000      2.555000      2.504000
   174     1     2     -0.003000     31.526000      1.306000      1.855000
   175     1     4     -0.041000     32.963000     12.983000      2.741000
   176     1     2      0.385000     32.205000      6.441000      9.965000
   177     1     3     -0.118000     32.205000      6.441000     11.494000
   178     1     3      0.222000     32.205000      7.582000     12.224000
   179     1     4      0.067000     31.881000      9.960000     12.051000
   180     1     4     -0.100000     31.781000     10.870000     10.822000
   181     1     4     -0.061000     31.573000     12.342000     11.180000
   182     1     3     -0.117000     32.205000      7.582000      0.658000
   183     1     4     -0.152000     32.459000     11.705000      2.077000
   184     1     3     -0.123000     32.205000      5.300000     12.224000
   185     1     2      0.394000     28.681000      6.441000      6.441000
   186     1     2     -0.140000     27.152000      6.441000      6.441000
   187     1     5      0.164000     26.422000      6.441000      5.300000
   188     1     4      0.059000     26.913000      5.212000      3.514000
   189     1     4     -0.109000     27.820000      5.205000      2.277000
   190     1     4      0.001000     27.172000      5.714000      0.980000
   191     1     4     -0.040000     28.574000      5.950000     13.007000
   192     1     2      0.384000     35.729000      6.441000      6.441000
   193     1     3     -0.115000     37.258000      6.441000      6.441000
   194     1     3      0.221000     37.988000      6.441000      7.582000
   195     1     4      0.066000     37.805000      6.013000      9.935000
   196     1     4     -0.101000     36.578000      5.869000     10.841000
   197     1     4     -0.061000     36.944000      5.582000     12.299000
   198     1     5     -0.009000     26.422000      6.441000      7.582000
   199     1     4     -0.152000     28.010000      6.554000     11.724000
   200     1     3     -0.124000     37.988000      6.441000      5.300000
   201     1     2      0.383000     32.205000      2.917000     19.323000
   202     1     3     -0.111000     32.205000      1.388000     19.323000
   203     1     3     -0.117000     31.064000      0.658000     19.323000
   204     1     2      0.387100     32.205000      9.965000     19.323000
   205     1     3     -0.123000     32.205000     11.494000     19.323000
   206     1     3     -0.117000     33.346000     12.224000     19.323000
   207     1     4     -0.150000     36.872000     10.228000     20.336000
   208     1     3      0.219000     33.346000      0.658000     19.323000
   209     1     4      0.059000     34.898000      1.495000     17.998000
   210     1     4     -0.092000     36.114000      2.430000     18.004000
   211     1     4     -0.059000     37.348000      1.782000     18.644000
   212     1     3      0.226000     31.064000     12.224000     19.323000
   213     1     4      0.075000     28.677000     12.039000     19.028000
   214     1     4     -0.115000     27.777000     10.809000     18.957000
   215     1     4     -0.007000     26.320000     11.172000     18.695000
   216     1     4     -0.040000     38.353000      9.912000     20.162000
   217     1     2      0.386000     32.205000      6.441000     15.799000
   218     1     3     -0.121000     32.205000      6.441000     14.270000
   219     1     3      0.223000     32.205000      5.300000     13.540000
   220     1     5      0.077000     32.089000      2.897000     13.680000
   221     1     5     -0.011000     31.927000      1.957000     14.877000
   222     1     4     -0.018000     32.093000      0.487000     14.495000
   223     1     4     -0.040000     31.167000     12.629000     15.863000
   224     1     2      0.387100     32.205000      6.441000     22.847000
   225     1     3     -0.116000     32.205000      6.441000     24.375000
   226     1     3      0.220000     32.205000      7.582000     25.106000
   227     1     4      0.065000     30.911000      9.250000     24.453000
   228     1     4     -0.098000     30.892000     10.458000     23.512000
   229     1     4     -0.056000     31.668000     11.655000     24.079000
   230     1     4     -0.020000     31.807000     25.725000     23.344000
   231     1     3     -0.119000     32.205000      7.582000     13.540000
   232     1     4     -0.150000     30.914000     11.161000     15.537000
   233     1     3     -0.115000     32.205000      5.300000     25.106000
   234     1     2      0.395000     28.681000      6.441000     19.323000
   235     1     2     -0.140900     27.152000      6.441000     19.323000
   236     1     5      0.161000     26.422000      6.441000     18.182000
   237     1     4      0.060000     27.088000      5.145000     16.518000
   238     1     4     -0.096000     28.066000      5.126000     15.340000
   239     1     4     -0.058000     27.504000      5.834000     14.101000
   240     1     2      0.384000     35.729000      6.441000     19.323000
   241     1     3     -0.122000     37.258000      6.441000     19.323000
   242     1     3      0.227000     37.988000      6.441000     20.464000
   243     1     4      0.074000     37.805000      6.807000     22.834000
   244     1     4     -0.114000     36.574000      6.999000     23.724000
   245     1     4     -0.004000     36.936000      7.236000     25.192000
   246     1     4     -0.041000     35.679000      5.359000     13.138000
   247     1     5     -0.010000     26.422000      6.441000     20.464000
   248     1     3     -0.117000     37.988000      6.441000     18.182000
   249     1     4     -0.149000     36.009000      5.158000     14.614000
   250     1     2      0.384000     32.205000     15.799000      6.441000
   251     1     3     -0.121000     32.205000     14.270000      6.441000
   252     1     3      0.225000     31.064000     13.540000      6.441000
   253     1     4      0.073000     28.680000     13.711000      6.744000
   254     1     4     -0.114000     27.765000     14.931000      6.856000
   255     1     4     -0.004000     26.298000     14.557000      7.083000
   256     1     4     -0.041000     38.382000     15.863000      5.408000
   257     1     2      0.387000     32.205000     22.847000      6.441000
   258     1     3     -0.115000     32.205000     24.375000      6.441000
   259     1     3      0.218000     33.346000     25.106000      6.441000
   260     1     4      0.065000     35.040000     24.475000      5.160000
   261     1     4     -0.097000     36.227000     23.505000      5.147000
   262     1     4     -0.056000     37.428000     24.053000      5.929000
   263     1     4     -0.024000     51.479000     23.191000      6.025000
   264     1     3     -0.120000     33.346000     13.540000      6.441000
   265     1     4     -0.148000     36.910000     15.536000      5.179000
   266     1     3     -0.118000     31.064000     25.106000      6.441000
   267     1     2      0.383000     32.205000     19.323000      2.917000
   268     1     3     -0.113000     32.205000     19.323000      1.388000
   269     1     3      0.217000     32.205000     18.182000      0.658000
   270     1     4      0.061000     33.531000     16.635000      1.501000
   271     1     4     -0.094000     33.526000     15.423000      2.437000
   272     1     4     -0.058000     32.931000     14.175000      1.773000
   273     1     4     -0.015000     31.464000      0.128000      2.830000
   274     1     2      0.387000     32.205000     19.323000      9.965000
   275     1     3     -0.124000     32.205000     19.323000     11.494000
   276     1     3      0.227000     32.205000     20.464000     12.224000
   277     1     4      0.073000     32.539000     22.839000     12.056000
   278     1     4     -0.113000     32.652000     23.756000     10.837000
   279     1     4     -0.008000     32.968000     25.199000     11.214000
   280     1     4     -0.040000     31.372000     13.176000      9.909000
   281     1     3     -0.118000     32.205000     20.464000      0.658000
   282     1     3     -0.116000     32.205000     18.182000     12.224000
   283     1     4     -0.150000     31.230000     14.661000     10.223000
   284     1     2      0.395000     28.681000     19.323000      6.441000
   285     1     2     -0.140000     27.152000     19.323000      6.441000
   286     1     5     -0.009000     26.422000     19.323000      5.300000
   287     1     2      0.387000     35.729000     19.323000      6.441000
   288     1     3     -0.124000     37.258000     19.323000      6.441000
   289     1     3     -0.116000     37.988000     19.323000      7.582000
   290     1     4     -0.149000     35.987000     20.349000     11.111000
   291     1     5      0.161000     26.422000     19.323000      7.582000
   292     1     4      0.059000     27.080000     20.612000      9.262000
   293     1     4     -0.095000     28.010000     20.613000     10.479000
   294     1     4     -0.057000     27.454000     19.794000     11.655000
   295     1     4     -0.017000     28.449000     18.822000     25.694000
   296     1     3      0.227000     37.988000     19.323000      5.300000
   297     1     4      0.075000     37.834000     19.509000      2.904000
   298     1     4     -0.114000     36.617000     19.633000      1.989000
   299     1     4     -0.004000     36.978000     19.581000      0.506000
   300     1     4     -0.040000     35.671000     20.156000     12.589000
   301     1     2      0.384000     32.205000     15.799000     19.323000
   302     1     3     -0.116000     32.205000     14.270000     19.323000
   303     1     3     -0.126000     31.064000     13.540000     19.323000
   304     1     2      0.384000     32.205000     22.847000     19.323000
   305     1     3     -0.115000     32.205000     24.375000     19.323000
   306     1     3     -0.113000     33.346000     25.106000     19.323000
   307     1     4     -0.151000     37.508000     23.645000     19.039000
   308     1     3      0.220000     33.346000     13.540000     19.323000
   309     1     4      0.066000     35.700000     13.732000     19.758000
   310     1     4     -0.101000     36.608000     14.960000     19.868000
   311     1     4     -0.061000     38.060000     14.596000     20.189000
   312     1     3      0.223000     31.064000     25.106000     19.323000
   313     1     4      0.072000     29.236000     24.602000     20.512000
   314     1     4     -0.117000     28.273000     23.414000     20.651000
   315     1     5      0.007000     26.902000     23.860000     21.170000
   316     1     4     -0.041000     38.722000     23.065000     19.760000
   317     1     2      0.383000     32.205000     19.323000     15.799000
   318     1     3     -0.115000     32.205000     19.323000     14.270000
   319     1     3      0.218000     32.205000     18.182000     13.540000
   320     1     4      0.066000     31.751000     15.834000     13.734000
   321     1     4     -0.100000     31.644000     14.925000     14.961000
   322     1     4     -0.061000     31.337000     13.472000     14.596000
   323     1     2      0.386000     32.205000     19.323000     22.847000
   324     1     3     -0.118000     32.205000     19.323000     24.375000
   325     1     3      0.223000     32.205000     20.464000     25.106000
   326     1     4      0.070900     30.904000     22.103000     24.423000
   327     1     4     -0.115000     30.923000     23.371000     23.581000
   328     1     5      0.027000     31.872000     24.429000     24.155000
   329     1     4     -0.041000     31.709000     12.802000     23.060000
   330     1     3     -0.127000     32.205000     20.464000     13.540000
   331     1     3     -0.112000     32.205000     18.182000     25.106000
   332     1     4     -0.151000     32.401000     14.039000     23.627000
   333     1     2      0.395000     28.681000     19.323000     19.323000
   334     1     2     -0.141900     27.152000     19.323000     19.323000
   335     1     5     -0.010000     26.422000     19.323000     18.182000
   336     1     4     -0.150000     27.940000     18.969000     14.006000
   337     1     2      0.384000     35.729000     19.323000     19.323000
   338     1     3     -0.115000     37.258000     19.323000     19.323000
   339     1     3     -0.125000     37.988000     19.323000     20.464000
   340     1     5      0.163000     26.422000     19.323000     20.464000
   341     1     4      0.068000     27.073000     18.029000     22.133000
   342     1     4     -0.114900     28.012000     18.006000     23.342000
   343     1     5      0.019000     27.462000     18.819000     24.519000
   344     1     4     -0.041000     28.488000     19.710000     12.790000
   345     1     3      0.221000     37.988000     19.323000     18.182000
   346     1     4      0.067000     37.815000     19.636000     15.801000
   347     1     4     -0.100000     36.587000     19.728000     14.891000
   348     1     4     -0.061000     36.944000     19.964000     13.423000
   349     1     2      0.384000     45.087000      2.917000      6.441000
   350     1     3     -0.112000     45.087000      1.388000      6.441000
   351     1     3      0.220000     43.946000      0.658000      6.441000
   352     1     4      0.059000     42.389000      1.494000      7.764000
   353     1     4     -0.092000     41.178000      2.433000      7.758000
   354     1     4     -0.059000     39.941000      1.788000      7.120000
   355     1     4     -0.027000     25.922000      2.821000      6.862000
   356     1     2      0.378000     45.087000      9.965000      6.441000
   357     1     3     -0.105000     45.087000     11.494000      6.441000
   358     1     3      0.197000     46.228000     12.224000      6.441000
   359     1     4      0.070900     48.601000     12.048000      6.791000
   360     1     4     -0.114000     49.510000     10.826000      6.902000
   361     1     4     -0.003000     50.957000     11.205000      7.195000
   362     1     4     -0.041000     38.920000      9.909000      5.451000
   363     1     3     -0.115000     46.228000      0.658000      6.441000
   364     1     3     -0.136000     43.946000     12.224000      6.441000
   365     1     4     -0.147900     40.398000     10.239000      5.272000
   366     1     2      0.383000     45.087000      6.441000      2.917000
   367     1     3     -0.112000     45.087000      6.441000      1.388000
   368     1     3     -0.118000     45.087000      5.300000      0.658000
   369     1     2      0.387100     45.087000      6.441000      9.965000
   370     1     3     -0.123000     45.087000      6.441000     11.494000
   371     1     3     -0.116000     45.087000      7.582000     12.224000
   372     1     4     -0.150000     46.058000     11.098000     10.239000
   373     1     3      0.219000     45.087000      7.582000      0.658000
   374     1     4      0.061000     43.760000      9.116000      1.519000
   375     1     4     -0.092000     43.764000     10.267000      2.524000
   376     1     4     -0.061000     44.285000     11.572000      1.910000
   377     1     3      0.227000     45.087000      5.300000     12.224000
   378     1     5      0.080000     45.185000      2.898000     12.084000
   379     1     5     -0.010000     45.321000      1.972000     10.879000
   380     1     4     -0.015000     45.175000      0.497000     11.243000
   381     1     4     -0.040000     45.917000     12.583000      9.925000
   382     1     2      0.384000     41.563000      6.441000      6.441000
   383     1     3     -0.121000     40.034000      6.441000      6.441000
   384     1     3      0.226000     39.304000      6.441000      5.300000
   385     1     4      0.075000     39.452000      6.298000      2.897000
   386     1     4     -0.115000     40.662000      6.192000      1.971000
   387     1     4     -0.002000     40.295000      6.269000      0.490000
   388     1     4     -0.041000     41.627000      5.307000     12.638000
   389     1     2      0.395000     48.611000      6.441000      6.441000
   390     1     2     -0.140900     50.139000      6.441000      6.441000
   391     1     5      0.162000     50.870000      6.441000      7.582000
   392     1     4      0.059000     50.205000      5.147000      9.250000